<?xml version="1.0"?>
<VTKFile type="PolyData" version="0.1" byte_order="LittleEndian" header_type="UInt32">
  <PolyData>
    <FieldData>
      <Array type="String" Name="SPACE" NumberOfTuples="1" format="ascii">
        76 80 83 0
      </Array>
    </FieldData>
    <Piece NumberOfPoints="484" NumberOfVerts="0" NumberOfLines="39" NumberOfStrips="0" NumberOfPolys="0">
      <PointData>
        <DataArray type="Float64" Name="Radius" format="ascii" RangeMin="0" RangeMax="6.827605133447436">
          0 1.1547696888405221 1.2112106530914508 1.3441298576975322 1.3785762721850798 1.3995915773332162
          1.4522732511558285 1.5321588652455909 1.6310062072470968 1.7439543964534414 1.8681893294517762 1.8532801411004238
          2.3358474986046165 2.417609488537955 2.670319515225845 2.8620929625476834 3.052034687536712 3.2090944928991214
          3.3962004607047165 3.5493918012711747 3.7694390358899597 3.9704714145543383 4.186608069051455 4.430365662534065
          4.641990096857688 4.80236174856534 5.268811087011968 5.776355375014312 6.036897905491546 6.288070771621787
          6.527807970382997 6.652819029582915 6.703817423539416 6.721874938742671 6.764369320700072 6.827605133447436
          6.7922320892850925 6.484658270082358 6.203137601670737 6.186146141860228 6.2558884620940765 6.337150357272911
          6.443591525479187 6.546753195736436 6.5694412005174545 6.511012745402153 6.384219587901648 6.258272174537149
          6.14034230708454 6.0251027344370005 5.923300688256601 5.8465187711607385 5.805701234222121 5.81891952581783
          5.8453171002177715 5.889661600810621 5.918044284734376 5.954669250100961 6.035663161865125 6.150517780551065
          6.23842307797496 6.182374917324896 5.962473993091591 5.796007054227753 5.765872745109645 5.8563902701819
          6.009405611135027 6.186428149106153 6.383225860375144 6.383225860375144 5.34513656510981 5.34513656510981
          5.136566632394995 5.039643611638193 4.999874530351943 5.014852254917221 5.014852254917221 5.053487935904431
          5.053487935904431 4.8107133640028685 4.7853936811614455 4.724313441109938 4.5454594371849355 4.285764878350237
          4.064414969230799 3.900235564547083 3.8675193841226245 3.9278734038410614 3.9200208557075826 3.877121595139651
          3.785156793483402 3.595097031894323 3.4732820352069314 3.4409976136785354 3.4903428758293993 3.4903428758293993
          4.108609725823236 4.108609725823236 3.7843413976519433 3.746002994736889 3.768937836135966 3.8180834402298633
          3.856796659213315 3.880478870875264 3.836470102596157 3.769453427238056 3.705396451436313 3.6823226108741283
          3.693381538458793 3.693381538458793 4.306136148228481 4.306136148228481 4.290062825518136 4.290062825518136
          3.3000633337725898 3.3000633337725898 3.094542474877477 3.094542474877477 2.8154421955713005 2.8154421955713005
          2.6589800041135025 2.7015148352761287 2.7729998547294663 2.8044176782817654 2.8480727650701834 2.8649095280448353
          2.8438797483321783 2.8627821920560925 2.882786695335904 2.823097779899067 2.7724215368455036 2.6838572071608757
          2.564573490725764 2.4402282606250343 2.4427992040095323 2.486802362171926 2.486802362171926 2.5991706488924042
          2.5991706488924042 2.25985001871402 1.9323694632873134 1.930599319809689 2.036963019757001 2.1114524046753003
          2.169466815956613 2.2473861759548424 2.287327089809501 2.303717531081351 2.0722750085758204 1.7571892589640996
          1.7571892589640996 2.8168912235795966 2.8168912235795966 2.677404281022584 2.6497280435068613 2.6497280435068613
          1.6963940924263294 1.6963940924263294 1.5228708504632655 1.4522180419325157 1.4451222655276637 1.4572864463440518
          1.4736427177755633 1.4892839016905808 1.5068108960720288 1.512670611909092 1.5095168494743398 1.5152759144697658
          1.524611644923539 1.4996643681386195 1.454459501376276 1.418030685691326 1.3406800971409452 1.1520317103271713
          3.614777040313562 3.614777040313562 3.614777040313562 3.3296132885899214 3.3296132885899214 3.2286225315151587
          3.2243338556243355 3.2243338556243355 2.729232393481816 2.729232393481816 2.440247388362198 2.1616613121572077
          2.0807346749751696 2.0819608072570914 2.107753593000227 2.1257977145703277 1.9434993683883832 1.9434993683883832
          1.9671992253321129 1.9671992253321129 1.7450478643042806 1.5570585194773792 1.5692559408707323 1.559533875764346
          1.5620810375954024 1.5867547134619662 1.6378859097884706 1.7080775458007864 1.7963649698817226 1.9002307959256242
          1.9874844924300457 2.0810264389945923 2.167594215645945 2.252965061276287 2.3594496406375125 2.3594496406375125
          2.143280441282799 2.143280441282799 2.060033277069334 2.0229023398384167 2.043898761726631 1.992959966140273
          1.9221042541406417 1.8122897365017858 1.6131733030867674 1.2802998865713842 0.9338381875104224 0.6003757840605787
          0.20687749901535993 0.03306276450420754 0.0068176014966732645 0.0013834432747642082 0.0002907646973835927 1.3347133134397688
          1.3347133134397688 1.165098267549678 1.0323633286902054 1.037774555437313 1.0952458219617487 1.1716025465470083
          1.2730297165398414 1.3605227489386005 1.4408014877474706 1.539897639257702 1.6081983563113325 1.68824099182625
          1.7520016010579922 1.5303145242760232 1.142324327533449 1.1993608070461743 1.1993608070461743 1.1258232637789944
          1.1314262010690253 1.1824828162157546 1.2293982579214486 1.2260482978779907 1.1162516392954942 2.870909320444845
          2.870909320444845 2.859302776833307 2.9359512215867176 3.071835603651528 3.071835603651528 1.544424764799468
          1.544424764799468 1.5039037043858932 1.581939579489208 1.5652738472141834 1.51324400731729 1.5008957709404225
          1.4967993381626001 1.4853146477214694 1.3985586556406193 1.0073848621134134 0 2.4189598851835017
          2.318867233294168 2.3440060356995884 2.3187449889843994 2.3820115018329475 2.528920103721612 2.3071057316177397
          1.8070806732406055 1.8070806732406055 1.6670468356278696 1.6791996291560523 1.8047677233775499 1.9889841522122556
          2.2026925600306604 2.2026925600306604 2.0778389922808285 2.0778389922808285 1.734773826180184 1.4044389601132559
          1.2356915504922248 1.1581625451082997 1.1195456948152853 1.1122820780244376 1.1590386223410531 1.2384583055383334
          1.3144065535404408 1.3994067488185644 1.4855107297900787 1.571859175399212 1.6845716605306222 1.6845716605306222
          1.4980969093499368 1.4980969093499368 1.3891705839268114 1.254848455151405 1.2275919710913743 1.2480643604150556
          1.248981964434379 1.2442430870755532 1.1665589736236686 1.0377602719086239 0.8127291411975784 1.6728182179083528
          1.6728182179083528 1.6567011669252256 1.64664009380477 1.5292033012318413 1.4014842002237888 1.1183871814312372
          1.7506181168712909 1.7506181168712909 1.5800795116546076 1.554677826637991 1.538723849653627 1.5372122424740267
          1.5386095704337208 1.5354524207398057 1.4663922990490192 1.2200091024111863 1.8973057718732838 1.8973057718732838
          1.814566252728169 1.8428065852216382 1.7385192104148426 1.7605138888910727 1.823122736309899 1.827455632320243
          1.8150897511817632 1.7904087623515643 1.771292664100884 1.7289119185919 1.6204926108952786 1.3347657374328923
          2.3901371965461617 2.3901371965461617 2.1239285144790583 2.2616998685498237 2.2616998685498237 2.308928207199052
          2.308928207199052 2.068588737513442 2.064004041374912 1.8274076346985222 1.5538472812622535 1.1422359154301287
          2.1868147192342104 2.1868147192342104 1.9254351397893532 1.5441828705660487 1.2321446707929435 1.215454043042313
          1.2633823582113437 1.3514984336503078 1.4535002549525573 1.536151534192645 1.4659335129329423 1.355417112024471
          1.1048465346281136 0.6647602174055098 0 1.8083079638629174 1.5662255009242636 1.4482588069192197
          1.4735082732434466 1.495371950489058 1.3986688072860314 1.0754407655388858 0.6014161820613646 2.0747575375996963
          2.0747575375996963 1.8213216498076292 1.5266005108339673 1.2057973999253946 0.8996589276590278 1.1640232829090678
          1.1640232829090678 1.0727333502288952 1.0351447284910853 1.0711852887324083 1.0840581089976489 0.8818863797299966
          0.6026602844307868 0.28933587168602914 1.6325302774264188 1.6325302774264188 1.401190548854495 1.4531432118620784
          1.465930161774032 1.5012497059378875 1.5637636687038245 1.5905126732432784 1.5118521108194587 1.5190650765237643
          1.5968764207284107 1.5968764207284107 1.598630845951187 1.598630845951187 1.4458193650455289 1.3574947588673454
          1.4044118394577723 1.4612143992086624 1.5366474104233818 1.625241325724227 1.6796426002518394 1.53198633687753
          1.4205975631075882 1.371348379156068 1.3501440411927936 1.3735801205486586 1.4101059445478208 1.4602534234540212
          1.5256501901958903 1.5789332425803762 1.552238408853346 1.1626921202893372 1.50883200686664 1.50883200686664
          1.4477246753263833 1.4371380257150417 1.4643921058008535 1.50462717642542 1.5724744424548465 1.6371116506270915
          1.6986135902503419 1.7361503186798375 1.7480987353934725 1.7080001357242431 1.5337797408444438 1.49902711637468
          1.49902711637468 1.425091577641123 1.3142551606476007 1.277480709975565 1.3232986408996796 1.374885387872009
          1.3518356013710386 1.5348836648020345 1.5348836648020345 1.2947580371036318 1.0404997608899853 0.9950775183632409
          1.0093043664577304 1.0461325791280514 1.0912080694665502 1.166834461696325 1.2448375866329537 1.3214922590033673
          1.3791924587285813 1.3192411753126938 1.1575311368499124 0.8781606165247873 0.5801458769661301 0.37177931912691264
          0.15228130778020635 1.4476297647898295 1.4476297647898295 1.382853115674042 1.4547135325561067 1.5511221190158244
          1.558645213826791 1.5241431017061675 1.436748123241113 1.3535861435121592 1.3455201511312485 1.3022019729132266
          1.1336970978568317 0.7079140985829591 2.2553693371625942 2.2553693371625942 2.4675995262984847 2.5991669875940566
          2.7489018077000957 2.463398066853419 2.3506587679440147 2.3506587679440147
        </DataArray>
        <DataArray type="Float64" Name="Curvature" format="ascii" RangeMin="0" RangeMax="14.492936061263391">
          0 3.547426745579093 14.492936061263391 14.355198635740797 7.652613995211503 3.3575417965592567
          1.5338896074874109 0.6622929089599907 0.19100141903056336 0.25151731693723395 5.704391900107181 9.991681864002851
          1.354495134934492 2.529655197345686 0.7880594835619472 1.2019927216403714 0.8321176911512225 0.9543408850844123
          0.993496277711538 0.9531971915817725 0.18337224219740872 0.17948343319806695 0.12115808612977719 0.5483057659895577
          0.2151683968565296 0.6171168859030391 0.027785654142625803 0.05735722180613624 0.0042724988097338655 0.028970489900961342
          0.10018795818673948 0.06063935586704723 0.025559737298470366 0.019929039923968658 0.0056194544572363715 0.023036474703684966
          0.028750431538107888 0.024835097647449112 0.01932300920214812 0.0320752618113395 0.025428562044595128 0.017724072275344793
          0.016029463385637398 0.04801158862020666 0.019801703596850972 0.003065899121120929 0.008597912289372208 0.01866671913041878
          0.0099154059551746 0.010737466448771157 0.03103528173751275 0.012455722355959736 0.014130522021840213 0.031020484386140166
          0.013159812298776993 0.007324236334146843 0.021675738235428517 0.009009789924444357 0.017376049365594514 0.03681588096067936
          0.03446120829127549 0.05106464216802876 0.024246030361096623 0.0187003747414938 0.012586298518891648 0.00954760907261284
          0.0207900090778133 0.008725572120297813 0.009621067575063782 0 0 0.056957060685343404
          0.07496927526802714 0.053342245943338217 0.03468349978909031 0.033442603285218614 0 0
          0.07915332859891669 0.045823108898679625 0.013830282772368816 0.02496891389648346 0.03505825720110645 0.045689012850062556
          0.05902845036947234 0.03978276303162829 0.0174880740145781 0.029550315093344184 0.051366669850525584 0.035387244930435886
          0.08083479727018585 0.09030009846623291 0.06221330512872763 0.02382829687532857 0.054907880275413476 0
          0 0.0722084312365241 0.03375736457457115 0.06831186337750773 0.07541987035745257 0.033349153448720366
          0.011011783532163004 0.0969828066742927 0.02747539354639202 0.007517651252780952 0.03021187300708356 0.05055244398162423
          0.06113326273955956 0 0 0.013970387321403205 0.1321375392773591 0
          0 0.11873867406806085 0.012977300768898695 0 0 0.11982514424336882
          0.050085122897709035 0.15106227549269632 0.1322528944160686 0.051451833982299765 0.07645318235107955 0.06402736461797406
          0.05268166167368999 0.06297243202318252 0.09504545271298949 0.06646372850763398 0.042376320017586684 0.036813166271383
          0.0749627180303098 0.042717058757363646 0.0660027815572031 0.14043101547401313 0 0
          0.10150447595473235 0.08544773966567974 0.04714275447565138 0.026249456648835583 0.010535980170460722 0.11330876583534283
          0.08150517258910724 0.06214855301122017 0.04949841758022409 0.10768728146568304 0.13621400838546302 0.11634024244787772
          0 0 0.0722758354231313 0.04206175453998188 0.03850922768850006 0
          0 0.1769563347700569 0.12066217647208552 0.05867412528903546 0.044766351806007625 0.028972846696685137
          0.03145263069070685 0.0082055876469588 0.024393840330331845 0.01010169896021434 0.005882583071284686 0.00940648641388612
          0.056721210643470514 0.030046823289389023 0.023583457493307692 0.0797533497703215 0.1020126987649815 0
          0 0.356581940419411 0 0 0.04357480614584125 0.05006558664053043
          0.07341706083681639 0 0 0.08920609913011456 0.06197441308536973 0.053954748293258845
          0.06558947547865929 0.10725437326194724 0.00557407649314497 0.36765737744382915 0.19232654657451573 0
          0 0.11347304343019562 0.10475173334718295 0.04603118714743679 0.02541110139506293 0.020025459669053045
          0.021039609516694417 0.043500944939933554 0.07414057692546247 0.03309423653277355 0.032572624692563334 0.13870197064277012
          0.04291434464664131 0.029153194492593033 0.021596604410234393 0.043860542469983624 0.037951866279908264 0
          0 0.1494498490921804 0.08738780429048988 0.10794684198714542 0.10998865078063182 0.024443335735437492
          0.10475681575582041 0.13375163854652977 0.11420730273047905 0.16550673272107588 0.4934032088561689 0.3141753486375903
          0.20991950568004486 0.3791844221478219 0.758091966003504 6.899239454727618 0 0
          0.1438601659583139 0.04362455737508314 0.037874119591138664 0.07610195441729027 0.1521391891284348 0.12019772404854391
          0.09764422444584596 0.6480313113846303 0.14443905743707078 0.23774246163132762 0.052437364571763574 0.046627162117460645
          0.4942446319250444 0.09192769215292214 0 0 0.14802400306763105 0.20349731225974324
          0.10302390935708493 0.1296627320202644 0.11835906477703287 0.08576631670501127 0 0
          0.09047618454792321 0.019054810352231027 0.008509943925513245 0.03424168348740197 0 0
          0.18441557372888853 0.1617289039950991 0.20933002827117314 0.1457786653433983 0.0713858567202172 0.05534630410674827
          0.06815592439065997 0.23480866523335267 0.41652373134963233 0 0 0.23370735652775024
          0.053265881777852866 0.05534192366129245 0.0401843269680796 0.031095294717209197 0.20894939864005532 0
          0 0.20549088281821976 0.09303858162000878 0.1914130714330584 0.10477771783896388 0.030036773638403316
          0.08199191857275262 0 0 0.31335629262010223 0.21063326905407795 0.11698353821361324
          0.1101617327416164 0.11445747131856111 0.04267014278725526 0.017856505278938287 0.035310915513839525 0.007437982137265763
          0.03582970412731984 0.09576943217824485 0.011383758704823787 0.0821316830914371 0.030780336351031556 0
          0 0.26620360587720177 0.20675102993263508 0.08284023794401275 0.061335669254521 0.11790026547075648
          0.049862159700467444 0.0950336868926331 0.028152600630447687 0.05658321541227782 0 0
          0.143280069390657 0.24301180936130667 0.26241220687024647 0.10313638290656743 0.28072830376094404 0
          0 0.24191705551330484 0.07000264361451448 0.04858099304128444 0.06960663782110034 0.02892222569388918
          0.06402569546506529 0.1743090520287621 0.15138901519675255 0 0 0.2059773194510411
          0.14541476273602996 0.03782827115793733 0.16193775785798392 0.0639475157440564 0.07631679688280713 0.020763555609653754
          0.05696652208484863 0.011931456555687628 0.03190467732191394 0.014144701931064341 0.047848837466750255 0
          0 0.18201510795894105 0.026286567951839493 0.06403702459854851 0 0
          0.20827450172569223 0.08648278267820723 0.021211315979305798 0.08440048465387356 0.1926125075685943 0
          0 0.15485035856521265 0.07799805867836482 0.4460882457052735 0.13294905782511474 0.13115187145740564
          0.09141480792805157 0.05365678144738653 0.16228171815343695 0.6559563095417834 0.2706962518211834 0.2970054441896589
          0.45832011442393567 0 0 0.25873225187785576 0.13292427269810228 0.12289892238185217
          0.05138424349492102 0.07361373164796059 0.30160979825161 0.2644872408154936 0 0
          0.223057889697969 0.08493871432619798 0.03490715479305633 0.06333593813767165 0 0
          0.09528403855421948 0.1621893748697055 0.13966786071735815 0.09923412192978817 0.9588557108304119 0.03138175658421784
          0.13045321771302598 0 0 0.2647788256955938 0.0910944751104212 0.10556379930791962
          0.1689456404450355 0.051657788964513035 0.0934772181210223 0.05195852302710615 0.07503374362396197 0.0731501939131705
          0.030818862004952412 0 0 0.2134603179647112 0.14396696034253223 0.13822646781981127
          0.11062281274912013 0.12974757335123818 0.07040646211569894 0.16625634686458468 0.4155953907107241 0.04581567183115139
          0.27143849400291037 0.06720845589621065 0.10026445343210341 0.17409914565211124 0.21806204929230374 0.15615678157627794
          0.2676238676627672 0.2701627206469655 0.3257799435327637 0 0 0.18249266773562436
          0.17609193900597322 0.06708480747145704 0.34282353844990127 0.2023614716821425 0.2814713324286815 0.2030557663058605
          0.08925567388699983 0.15792164842216902 0.42894722922435663 0.328115632323808 0 0
          0.07958373847824643 0.19733156246185213 0.107121255220507 0.11000992162897089 0.08600048522566771 0.1521143287426809
          0 0 0.2323895378776376 0.20972536665405833 0.08345210046755795 0.29013155219217096
          0.021238897012393048 0.18564333836446195 0.16845081518734747 0.31924289577275405 0.16609940539955062 0.21980595836765623
          0.7496227418192432 0.4202214766922126 0.26699968247175737 0.1507699190520436 0.268090484653035 0.6911255690091631
          0 0 0.10313912607001949 0.14274991864556463 0.27941523476316504 0.3418605648138931
          0.18000705758828406 0.03291376271381298 0.04651925308317275 0.06955572152019487 0.13087993333863124 0.24126430236698426
          0.7041727620908425 0 0 0.15779166415041024 0.051866551959650405 0.16741313277092532
          0.2459899585700319 0.14667721399887151 0.24270572193883808 0
        </DataArray>
        <DataArray type="Float64" Name="Torsion" format="ascii" RangeMin="-245.02670499941732" RangeMax="476.5692210460218">
          0 0 -8.60591047585327 -7.404896338785082 -10.588303231922495 -10.794979718581471
          -8.844278421497224 -11.5269519382168 -45.0353582774499 -245.02670499941732 6.1102347624437146 3.1583250968605303
          34.49965524115198 1.1688642748334561 7.0971997621858005 -4.12412674414975 -6.445695509380852 0.98778856493135
          0.8408452826075021 0.30569846617058993 9.865725425170476 -2.391341386508062 5.166713751359717 0.027181124838977836
          -0.558188979180808 0.0069595660711810345 -2.981525220500104 -0.14365868858650344 -2.7368220408028323 -0.8085398264749204
          0.03904010623383916 0.19346291247052122 0.15031142893051697 0.22093037178577596 1.1034463778885217 -0.049903654105058974
          -0.015062930774483506 -0.03876102691694597 0.12469475771011627 0.031932079289676694 -0.06582561283241754 0.32318150924632705
          0.3006837043611389 0.061337647330952164 0.2669279304980147 1.1881166469495925 0.045099502480731295 -0.020608802991962213
          -0.2234887278772938 0.11397938595894187 -0.019933421333232313 -0.3213735474336286 0.2111494128997869 0.004385739485959695
          -0.3165890116552084 0.3202329113240306 0.13332160794912246 0.6332206997209433 0.20197775150005695 0.15005781047418887
          0.38957333925417237 0.15285878069491093 0.10214343995838297 -0.35840333465169194 -0.40207730634073163 0.1850608185626836
          0.11272147981386675 0.4977245890340678 0 0 0 0
          0.0889763563781172 0.269780428450044 0.14882716451226982 0 0 0
          0 -0.016556144743890062 -0.1646476842815115 -0.32321881193712715 0.06500961150260724 0.008196485928322467
          -0.01321904064625759 0.09763369335314226 0.2832337689986165 0.03373583309682483 0.055876085792875035 -0.133121699917109
          0.09853351599215078 0.2883784408947827 0.42562125800660516 0.9958045439817803 0 0
          0 0 0.30234081571175125 -0.1708461046421239 -0.21978308475126968 0.1830260036947068
          0.26560293556825504 0.01697596636850413 0.1814447923997029 -1.0479289566809915 0.22321155877284957 -0.11896785676572216
          0 0 0 0 0 0
          0 0 0 0 0 0
          -0.2758824607283028 0.012220039759326711 0.007994688024557628 -0.18241878065964098 -0.20612691251506116 -0.20047955679186436
          -0.17496674531416948 0.1202464910702838 0.07030501173186615 -0.14376816161416747 -0.1850826952410833 0.7822497410182679
          0.29042297511936666 0.9645060214878629 0.30061257332132035 0 0 0
          0 0.3395479103732117 0.2655017855535292 -0.38860408326991547 1.5701543387431887 0.29213912794499935
          0.5988961443276781 0.3576369545489299 -0.18454491401396877 -0.3288513210422335 -0.2656325387360835 0
          0 0 0 -0.4052852578034629 0 0
          0 0 -0.12082516839872486 -1.4582402826447496 -0.0043648464903455995 0.10818858202203331
          -0.8087316409365533 -0.6961034129951899 0.31514375626487495 0.8620422405514122 0.3858659297728718 -4.406020853218989
          -0.21015913131047148 -0.8107658261777643 -1.1373845232375126 0.5693866151585005 0 0
          0 0 0 0 0 0.3309904096290322
          0 0 0 0 -0.09081331293576092 0.23035004597269945
          -0.23697086603402728 -0.15847261973630664 -6.7714305718377155 0.1301087774757202 0 0
          0 0 -0.09133508249240108 -0.855814150782343 0.575190838809029 -0.6123413229221987
          0.8217534246811425 -0.7969217912416655 -0.7065331335768713 -1.6933474532540664 2.8830475078483557 0.030717238140856046
          -1.6747751830927842 -1.5553342847464224 -0.7790778755849991 0.6465857215575919 0 0
          0 0 -0.2717383039705747 -0.13180620603736784 -0.03538086376078487 -1.5459701493391036
          -0.2764924778311832 -0.46468700188387774 -0.011320569241414688 0.704021264638253 -0.27351096101703987 -0.8598557489637823
          2.9807700237627555 21.988038909587797 476.5692210460218 0 0 0
          0 -1.1611028715900085 -0.9476362732398426 -1.6699577964558114 0.28716241571669704 1.4638643701822132
          -8.347316890265995 -0.3774996590430147 -3.302235012281666 0.23319688523625623 3.052260115679097 -6.939440292414478
          -0.08837722018757058 0 0 0 0 -0.3725164226044242
          -0.2404427662507414 -0.017838210402790024 -0.021735006369485613 0 0 0
          0 -0.6991071911785945 0.9529432436586451 0 0 0
          0 1.0870500814648232 0.03069709493511387 -0.888575746818006 -1.1968314066021988 -0.014718848696603738
          1.6500486403603674 0.6152651023440063 0 0 0 0
          -0.12105291521658988 0.4167258765341831 0.4368982126734076 -1.7042432157126983 0 0
          0 0 0.7865646566353994 0.20919844514505936 0.1894130938235105 0.38167893145004755
          0 0 0 0 -0.01590088142336054 0.22563528581676295
          0.10803543600978534 0.05428402653636216 -0.7579716616613079 2.219821408916992 0.4252901673834335 1.4453463743547956
          -1.9797263424387754 -0.41871849971315395 -1.6738673271515285 -0.264196056502351 0 0
          0 0 0.2161090125018208 -1.484847644395239 -1.0745264908737242 -0.39176839924985346
          -0.331865890007505 0.2643667390345073 2.315782124763794 0 0 0
          0 -0.03270906224448737 0.17829830072601174 0.1537709529740481 0 0
          0 0 -0.011956799519474886 0.3735834441370669 0.4574697795585763 0.8768201535051607
          -0.7343953848629741 -0.12198154268428464 0 0 0 0
          -0.3231635460761159 1.5906822642506477 0.0419931622239007 0.14334541531374648 0.3803163561312756 -1.167186034075494
          -0.2788454249157756 -2.908651609145112 0.08441629361776969 1.6074271245822171 0 0
          0 0 -1.576740688019199 0 0 0
          0 0.5943465404368834 0.8893761698347131 0.4645286440210516 0 0
          0 0 1.8704590724249672 0.036241082885995986 -0.11993137842246943 -0.10385816241741976
          -0.7527664689408704 2.9020423546256913 2.5495964088419134 0.08311468624762848 -0.28920319831227054 0.16530636793561404
          0 0 0 0 0.2956028681228517 -0.5193462574259378
          -2.084396786165578 -0.05518018809383147 -0.29930162447496306 0 0 0
          0 -0.3222272306461951 -0.501910240549718 0 0 0
          0 -0.5137980639909334 -0.06672377303459164 4.125511443593738 0.03446686923686639 2.241888822906982
          0 0 0 0 0.11721665224775282 0.07812921132110637
          -0.06764999294090003 -2.105077774430849 0.02425679700006202 0.40224138832726497 -0.30011353520698003 -0.1517628166067596
          0 0 0 0 -0.12719901845578332 0.2891678323525592
          2.320821182251484 0.7888138271884216 -1.2672626644197604 1.419778302088523 0.18870929206627254 2.9569601312667815
          -0.0276027305467907 -3.0709561044175047 0.7906737509420515 -0.5527985392696039 -0.5275051677007954 -0.989188495270844
          0.37682944120663564 0.14859475761560578 0 0 0 0
          -0.37449623935367204 -1.9438081492350245 -0.6168728518920381 -2.2414900076811355 -0.2742595338146988 -0.06400011945576443
          -1.112309201476118 -0.07889708107690102 -0.012598158649256482 0 0 0
          0 0.020395735835026272 0.39399289701062323 0.023844043564311204 -0.04246143608039896 0
          0 0 0 -0.2558300114672316 -0.38911273611409714 -0.2188058449413287
          -13.99876007164301 0.1352494395859568 -1.1637544287447845 -0.6555943577316813 -0.6576767244134937 -0.6711716804855888
          -0.42738843089782486 -0.4516846189300657 0.5706627156022533 -1.4637682810270667 1.7289166336245263 0
          0 0 0 0.2136535301119563 0.30645963573168966 0.2522482734039585
          0.3761111869165936 -0.41848242830705945 0.30550611930405275 -0.6335251025370732 -0.47511962890579496 0.8158913850679328
          0 0 0 0 -0.851948186338809 -0.41834934639630733
          -0.01923309467740228 0.94113979614231 0 0
        </DataArray>
        <DataArray type="Float64" Name="FrenetTangent" NumberOfComponents="3" format="ascii" RangeMin="0.9999999999999998" RangeMax="1.0000000000000002">
          0.2453744624399137 -0.6564268893700212 -0.7133688471571501 0.2453744624399137 -0.6564268893700212 -0.7133688471571501
          0.006994564417229653 -0.6128686328170185 -0.7901538552570706 -0.31746803521100353 -0.7310116633902727 -0.6040165515999142
          -0.47888999165326696 -0.7873654083032605 -0.38822685340117 -0.5232964441370068 -0.8148095027535757 -0.2494920956183488
          -0.5261338446233164 -0.8320681080858383 -0.17562984099617485 -0.5184759536328646 -0.8435952769294885 -0.1397486824508599
          -0.5104599194591435 -0.8502012390548747 -0.12879644302278104 -0.503153220792881 -0.8540071019390689 -0.13232046796842495
          -0.6131769289887496 -0.7451309056946186 -0.2622860788045057 -0.35880783237508707 -0.8912742504057873 -0.27728532234846714
          -0.07051463171549131 -0.987910796556223 -0.13805775878840476 -0.061670228186706616 -0.9776251646857141 -0.20111146244963263
          -0.012423939225493468 -0.9435848472131901 -0.3308976909012542 0.04641564906346623 -0.9121797356174707 -0.40715318671337747
          0.028845731486473253 -0.8894795061682327 -0.4560637366440434 0.046847049323983404 -0.8918159491628985 -0.44996629516922126
          0.02801389492938287 -0.9022772646712068 -0.4302452316392717 0.05885917040244743 -0.9011052254730016 -0.4295869768565925
          0.12783915952778735 -0.8987059012768854 -0.4195054854246009 0.1515991487023206 -0.90137040531246 -0.4056465093398232
          0.18672700518728672 -0.8911327741020076 -0.41354008808705256 0.16497842873928684 -0.9335963824126997 -0.31808790105352347
          0.14064316167776852 -0.9768001390489169 -0.16149609725097902 0.0595426330877498 -0.7804261419220394 -0.6224063880212497
          0.01683107795273148 -0.6419990282120736 -0.7665206863416685 0.028155135368768115 -0.6846419964247875 -0.7283355168353715
          0.04618719104865168 -0.7062421960491495 -0.7064621036564595 0.06404834314832604 -0.6961706918691452 -0.7150134107290507
          0.0913411664067407 -0.5999129911151847 -0.7948340672182392 0.1486473016016441 -0.4820173395059037 -0.8634600535880048
          0.2131115216340636 -0.4070889519007625 -0.8881790723650004 0.26083560523100485 -0.38300259322642416 -0.8861567584945733
          0.2912475999821573 -0.38615663267531 -0.8752473310701947 0.27094883193059965 -0.41664316710465266 -0.8677529612628516
          0.23028249984385793 -0.4846635866009873 -0.8438431003976573 0.21677499768060823 -0.49343896603285237 -0.8423340116491805