<?xml version="1.0"?>
<VTKFile type="PolyData" version="0.1" byte_order="LittleEndian" header_type="UInt32">
  <PolyData>
    <FieldData>
      <Array type="String" Name="MaterialNames" NumberOfTuples="2" format="ascii">
        109 116 108 49 0 78 79 95 77 65 84 69 82 73 65 76 0
      </Array>
      <Array type="String" Name="MaterialLibraries" NumberOfTuples="1" format="ascii">
        69 65 74 65 73 95 118 116 107 77 82 77 76 77 111 100 101 108 78 111 100 101 73 46 109 116 108 0
      </Array>
      <Array type="String" Name="SPACE" NumberOfTuples="1" format="ascii">
        76 80 83 0
      </Array>
    </FieldData>
    <Piece NumberOfPoints="6179" NumberOfVerts="0" NumberOfLines="20" NumberOfStrips="0" NumberOfPolys="0">
      <PointData>
        <DataArray type="Float64" Name="Radius" format="ascii" RangeMin="0.4398011572966223" RangeMax="6.764340637035903">
          0.8840513004986207 0.9598223353258291 1.0085254613307275 1.012328593585752 1.0166400389026227 1.1470612597379624
          1.1738207821484563 1.3287389334067983 1.3295935199705522 1.3326093466261764 1.333107049897172 1.363715801063411
          1.4921686450705187 1.5472746694668804 1.5882089531107326 1.4435980126151664 1.5381158143561329 1.5399852802215015
          1.6549574309416824 1.671456970298859 1.5367971650466423 1.5199413784696356 1.6118276916391314 1.6424706467377663
          1.5010154360075563 1.5975945404819594 1.7107144147090203 1.7360677167039036 1.757889629438162 1.8084866353375075
          1.8770832751051465 1.9292295195617013 1.966355405883716 2.0773170625482567 2.099576008373574 2.162371826194753
          2.2023753942370203 2.4213856773231304 2.374727956467746 2.335734083556852 2.3265455980687495 2.1882958742868754
          2.1376309932770785 2.013344380888601 1.8487416502761702 1.8487218319430532 1.8437870669968908 1.6940988135111026
          1.6238503545084002 1.6369749113450334 1.5714899174647996 1.6917316543221628 1.6790770921743519 1.5825115076104113
          1.5335365162645775 1.5223184764104603 1.569574172041375 1.5720125814788852 1.499694311267173 1.6768105075935409
          1.814279751194701 2.1311943176603156 2.1667242940674734 2.3591960164672545 2.3939353488376263 2.375931641361097
          2.3944162726296407 2.382975033561159 2.2670065478229677 2.1850084648065855 2.4057012353486047 2.4082061061323796
          2.5729705047397653 2.577727326408752 2.5623126007347987 2.564652765838252 2.667204791163061 2.683577639986364
          2.6643623320598504 2.64913142532048 2.6036872582127057 2.730711991923066 2.798476229800725 2.674817237103123
          2.6754285731554197 2.7002895726154925 2.7070057925926823 2.685073205302727 2.6275573031103603 2.5972727889219263
          2.607401245559898 2.6341040789164376 2.605490245243868 2.6340543718761023 2.6876103498221915 2.6888512266527655
          2.6431011691448374 2.655348504520242 2.680407942978869 2.6777847974152604 2.575288015957659 2.5752673566772035
          2.5727056059007234 2.388366335391269 2.3341040249983345 2.2515947597008306 2.3893672344441366 2.533255541998712
          2.5455421744527484 2.4794553765288923 2.4676294668949303 2.472500035673389 2.4847581123232625 2.504592716766579
          2.4859388953368344 2.458236671066099 2.585314963603327 2.6688568456882162 2.68270941813328 2.9512702517780935
          3.0021929635411 3.2060946881702352 3.2396247051653777 3.3106167999492753 3.3291996244362583 3.3280215355253273
          3.375926804935863 3.3755291133501557 3.368460185205914 3.3592727948329864 3.3437714637945586 3.3684630780785505
          3.351423182388497 3.360092878773297 3.360340917883708 3.3739750307799117 3.3730107327748553 3.3921446002032605
          3.392148444995545 3.3931057982744113 3.4048760143784693 3.42359419772495 3.4513399264142017 3.4883433336167347
          3.48576157934304 3.561043948820748 3.6197788871002046 3.6746552172531395 3.716808122212145 3.6702439825923676
          3.5200732034770463 3.5025711285236243 3.52143014611936 3.5518969260680255 3.6092925171040164 3.6147437432629603
          3.6191265181697303 3.6189640970633947 3.639109758538697 3.6436763504597875 3.538487631295549 3.6053879721822346
          3.607166402156662 3.722658849766636 3.722929666699477 3.7903630829769495 3.7907226202880704 3.812834164922
          3.8155918595169105 3.82108474715407 3.8371680478565966 3.8382759674499844 4.028965141205366 4.034822998277937
          4.0887291002540245 4.164535680497013 4.273901026240589 4.2857352094243115 4.311710208330229 4.369747237536534
          4.41278426804179 4.422873067477818 4.484241114438341 4.497879689594366 4.519521536085647 4.552878470177472
          4.559789071086211 4.592986737540762 4.60726768994463 4.706334620525436 4.73645554800166 4.716971638901666
          4.7228698919583145 4.74548238239831 4.68185343842476 4.681889121345104 4.690774168510836 4.699273443944236
          4.671126342531539 4.703027103757023 4.752518017838543 4.796847181096172 4.848902806270888 4.995228307713445
          5.045852113840003 5.141895629593694 5.353678895101524 5.483198340428191 5.637190975537161 5.666893404642232
          5.73984253598646 6.048084549843469 6.229195120357661 6.2292147487239555 6.345782230136293 6.356531936133667
          6.391476570880633 6.404093746000816 6.427633633635297 6.427538351719767 6.310386498491631 6.302914193938828
          6.270289469345738 6.1508975649634685 6.034867730086952 5.945668270319115 5.821297472529516 5.762675829570605
          5.6960224895729175 5.657489499550903 5.647370508930546 5.647804357986923 5.64343395040732 5.597356391594556
          5.6654013752537145 5.669347750789685 5.722540993440974 5.76422762071355 5.784740629476007 5.789605636732597
          5.8255815853299895 5.8696022657294495 5.930114305638816 6.028303653508729 6.050732953660461 6.110071273279066
          6.137369703418489 6.168048908579723 6.177429018428149 6.178621887480176 6.1786177458507385 6.177586480120934
          6.150866300187942 6.150860439917051 6.14940123246519 6.089133773532175 6.088591369235143 6.083581258835829
          5.987575695209062 5.987548459677966 5.980766812435068 5.843942902580201 5.84756590221397 5.845687599882835
          5.8092429685984985 5.812346896735507 5.784481114418103 5.776075787737447 5.760197896639708 5.77017047308616
          5.737651652285065 5.7727944638306035 5.77516706924721 5.768203580125589 5.776542633570024 5.776697156820802
          5.774769787684806 5.785803272238282 5.785612407771578 5.776962046771099 5.767095141339868 5.7728350529001204
          5.795664483258486 5.82069465516709 5.824555729066033 5.851900520212201 5.851082157007724 5.835949407935449
          5.8418207728179095 5.884112491681968 5.919305257203278 5.966331643003448 6.030331309765133 6.0092120898865184
          5.982881951675087 6.121861233902071 6.121217261839874 6.098918443988046 6.114014530866937 6.160283191374039
          6.21381997991072 6.272523476148457 6.293932864630626 6.301380528488425 6.34163021586004 6.3786748207335515
          6.462929965056619 6.503559560950556 6.520046848247129 6.5456205567894035 6.543770361963464 6.452343216891701
          6.454471666627592 6.454959249169131 6.446593105379904 6.43892777957525 6.467344900208684 6.478749572063658
          6.497800736820619 6.461713275644557 6.392859985009337 6.300294809129642 6.266366535213707 6.22313247934028
          6.210494716541178 6.214358088321534 6.213256556107163 6.186971359133744 6.161273221958517 6.107082281748698
          6.111649969834788 6.123546190597908 6.128218654321325 6.1542289607395695 6.175621408763715 6.185992995642432
          6.2929427503814415 6.296579881992686 6.301820628286701 6.393882376331191 6.466575053029813 6.4776369183271365
          6.5803853258792095 6.597818184888372 6.686790695818469 6.711360036504137 6.72955990362532 6.7337150391913
          6.757307885789426 6.76387598860628 6.764340637035903 6.741484273217771 6.7101434722647895 6.704674973973554
          6.660814219953146 6.655872496542569 6.545472017838133 6.545589224544869 6.574773694522089 6.633811431855552
          6.658028627644663 6.659053080593262 6.657066893820973 6.638887473176022 6.631877852690623 6.66793360693871
          6.666115496917419 6.6472510005369285 6.64659399962043 6.602285187638881 6.334850134385151 6.31780320519217
          6.129193450879731 6.095474227600771 6.0853722334345886 6.008809966582723 5.806809305566028 5.59163131143485
          5.52040977356623 5.437997619843734 5.35570059303153 5.115569723167039 1.124659312594409 1.1252986065359787
          1.1779338077251957 1.1786499725277457 1.3569750083627186 1.4345718066715138 1.4624036257059987 1.6123340360606258
          1.61560385905983 1.8268821506517272 1.9182806077024939 1.9480879533140545 1.951111604549435 1.824425425092263
          1.826007390070104 1.8392729108463677 1.8491372417031693 1.8798432751951855 1.941507891851811 1.7990416731798773
          1.6553968136966704 1.608497040235244 1.4958929027648542 1.6236375137821397 1.7576922480361985 1.8198261053637426
          1.8291536312835575 1.6737389670759601 1.5622521468047368 1.5575049030424497 1.5460862330130598 1.6723063048519407
          1.7646723407242246 1.891606476558711 1.924474332766191 2.1758691452255725 2.191747848764341 2.3152807155368693
          2.3395118756353237 2.3396950262411536 2.3852995270927937 2.377334266240869 2.1882958742868754 2.1376309932770785
          2.013344380888601 1.8487416502761702 1.8487218319430532 1.8437870669968908 1.6940988135111026 1.6238503545084002
          1.6369749113450334 1.5714899174647996 1.6917316543221628 1.6790770921743519 1.5825115076104113 1.5335365162645775
          1.5223184764104603 1.569574172041375 1.5720125814788852 1.499694311267173 1.6768105075935409 1.814279751194701
          2.1311943176603156 2.1667242940674734 2.3591960164672545 2.3939353488376263 2.375931641361097 2.3944162726296407
          2.382975033561159 2.2670065478229677 2.1850084648065855 2.4057012353486047 2.4082061061323796 2.5729705047397653
          2.577727326408752 2.5623126007347987 2.564652765838252 2.667204791163061 2.683577639986364 2.6643623320598504
          2.64913142532048 2.6036872582127057 2.730711991923066 2.798476229800725 2.674817237103123 2.6754285731554197
          2.7002895726154925 2.7070057925926823 2.685073205302727 2.6275573031103603 2.5972727889219263 2.607401245559898
          2.6341040789164376 2.605490245243868 2.6340543718761023 2.6876103498221915 2.6888512266527655 2.6431011691448374
          2.655348504520242 2.680407942978869 2.6777847974152604 2.575288015957659 2.5752673566772035 2.5727056059007234
          2.388366335391269 2.3341040249983345 2.2515947597008306 2.3893672344441366 2.533255541998712 2.5455421744527484
          2.4794553765288923 2.4676294668949303 2.472500035673389 2.4847581123232625 2.504592716766579 2.4859388953368344
          2.458236671066099 2.585314963603327 2.6688568456882162 2.68270941813328 2.9512702517780935 3.0021929635411
          3.2060946881702352 3.2396247051653777 3.3106167999492753 3.3291996244362583 3.3280215355253273 3.375926804935863
          3.3755291133501557 3.368460185205914 3.3592727948329864 3.3437714637945586 3.3684630780785505 3.351423182388497
          3.360092878773297 3.360340917883708 3.3739750307799117 3.3730107327748553 3.3921446002032605 3.392148444995545
          3.3931057982744113 3.4048760143784693 3.42359419772495 3.4513399264142017 3.4883433336167347 3.48576157934304
          3.561043948820748 3.6197788871002046 3.6746552172531395 3.716808122212145 3.6702439825923676 3.5200732034770463
          3.5025711285236243 3.52143014611936 3.5518969260680255 3.6092925171040164 3.6147437432629603 3.6191265181697303
          3.6189640970633947 3.639109758538697 3.6436763504597875 3.538487631295549 3.6053879721822346 3.607166402156662
          3.722658849766636 3.722929666699477 3.7903630829769495 3.7907226202880704 3.812834164922 3.8155918595169105
          3.82108474715407 3.8371680478565966 3.8382759674499844 4.028965141205366 4.034822998277937 4.0887291002540245
          4.164535680497013 4.273901026240589 4.2857352094243115 4.311710208330229 4.369747237536534 4.41278426804179
          4.422873067477818 4.484241114438341 4.497879689594366 4.519521536085647 4.552878470177472 4.559789071086211
          4.592986737540762 4.60726768994463 4.706334620525436 4.73645554800166 4.716971638901666 4.7228698919583145
          4.74548238239831 4.68185343842476 4.681889121345104 4.690774168510836 4.699273443944236 4.671126342531539
          4.703027103757023 4.752518017838543 4.796847181096172 4.848902806270888 4.995228307713445 5.045852113840003
          5.141895629593694 5.353678895101524 5.483198340428191 5.637190975537161 5.666893404642232 5.73984253598646
          6.048084549843469 6.229195120357661 6.2292147487239555 6.345782230136293 6.356531936133667 6.391476570880633
          6.404093746000816 6.427633633635297 6.427538351719767 6.310386498491631 6.302914193938828 6.270289469345738
          6.1508975649634685 6.034867730086952 5.945668270319115 5.821297472529516 5.762675829570605 5.6960224895729175
          5.657489499550903 5.647370508930546 5.647804357986923 5.64343395040732 5.597356391594556 5.6654013752537145
          5.669347750789685 5.722540993440974 5.76422762071355 5.784740629476007 5.789605636732597 5.8255815853299895
          5.8696022657294495 5.930114305638816 6.028303653508729 6.050732953660461 6.110071273279066 6.137369703418489
          6.168048908579723 6.177429018428149 6.178621887480176 6.1786177458507385 6.177586480120934 6.150866300187942
          6.150860439917051 6.14940123246519 6.089133773532175 6.088591369235143 6.083581258835829 5.987575695209062
          5.987548459677966 5.980766812435068 5.843942902580201 5.84756590221397 5.845687599882835 5.8092429685984985
          5.812346896735507 5.784481114418103 5.776075787737447 5.760197896639708 5.77017047308616 5.737651652285065
          5.7727944638306035 5.77516706924721 5.768203580125589 5.776542633570024 5.776697156820802 5.774769787684806
          5.785803272238282 5.785612407771578 5.776962046771099 5.767095141339868 5.7728350529001204 5.795664483258486
          5.82069465516709 5.824555729066033 5.851900520212201 5.851082157007724 5.835949407935449 5.8418207728179095
          5.884112491681968 5.919305257203278 5.966331643003448 6.030331309765133 6.0092120898865184 5.982881951675087
          6.121861233902071 6.121217261839874 6.098918443988046 6.114014530866937 6.160283191374039 6.21381997991072
          6.272523476148457 6.293932864630626 6.301380528488425 6.34163021586004 6.3786748207335515 6.462929965056619
          6.503559560950556 6.520046848247129 6.5456205567894035 6.543770361963464 6.452343216891701 6.454471666627592
          6.454959249169131 6.446593105379904 6.43892777957525 6.467344900208684 6.478749572063658 6.497800736820619
          6.461713275644557 6.392859985009337 6.300294809129642 6.266366535213707 6.22313247934028 6.210494716541178
          6.214358088321534 6.213256556107163 6.186971359133744 6.161273221958517 6.107082281748698 6.111649969834788
          6.123546190597908 6.128218654321325 6.1542289607395695 6.175621408763715 6.185992995642432 6.2929427503814415
          6.296579881992686 6.301820628286701 6.393882376331191 6.466575053029813 6.4776369183271365 6.5803853258792095
          6.597818184888372 6.686790695818469 6.711360036504137 6.72955990362532 6.7337150391913 6.757307885789426
          6.76387598860628 6.764340637035903 6.741484273217771 6.7101434722647895 6.704674973973554 6.660814219953146
          6.655872496542569 6.545472017838133 6.545589224544869 6.574773694522089 6.633811431855552 6.658028627644663
          6.659053080593262 6.657066893820973 6.638887473176022 6.631877852690623 6.66793360693871 6.666115496917419
          6.6472510005369285 6.64659399962043 6.602285187638881 6.334850134385151 6.31780320519217 6.129193450879731
          6.095474227600771 6.0853722334345886 6.008809966582723 5.806809305566028 5.59163131143485 5.52040977356623
          5.437997619843734 5.35570059303153 5.115569723167039 0.476610038149478 0.4398011572966223 0.598990065007257
          0.8243992748253656 1.0014607933342607 1.001861898838621 1.0515989813792959 1.1419949049589038 1.154860742718853
          1.1576873159789434 1.2627138380037315 1.2634616269812173 1.3561874601894781 1.429405501290986 1.4619462752032324
          1.5864100315254615 1.7063962791345875 1.8013195301518725 1.8848839267882118 1.8712745385223326 1.8764804000044557
          2.003798931015881 2.021690159105585 2.132750016652327 2.059918284596656 1.9983074855190661 1.9601902072221982
          1.9118325420460327 1.8391457724521605 1.7724887567939407 1.85805327462275 2.1066173981851577 2.114214848480802
          2.1442343806883177 2.153121262914872 2.3250596037944904 2.325641331708409 2.3977755930343005 2.39589034056326
          2.400310846231253 2.4040327296597304 2.393065163802698 2.383094610376247 2.380314131254729 2.2670065478229677
          2.1850084648065855 2.4057012353486047 2.4082061061323796 2.5729705047397653 2.577727326408752 2.5623126007347987
          2.564652765838252 2.667204791163061 2.683577639986364 2.6643623320598504 2.64913142532048 2.6036872582127057
          2.730711991923066 2.798476229800725 2.674817237103123 2.6754285731554197 2.7002895726154925 2.7070057925926823
          2.685073205302727 2.6275573031103603 2.5972727889219263 2.607401245559898 2.6341040789164376 2.605490245243868
          2.6340543718761023 2.6876103498221915 2.6888512266527655 2.6431011691448374 2.655348504520242 2.680407942978869
          2.6777847974152604 2.575288015957659 2.5752673566772035 2.5727056059007234 2.388366335391269 2.3341040249983345
          2.2515947597008306 2.3893672344441366 2.533255541998712 2.5455421744527484 2.4794553765288923 2.4676294668949303
          2.472500035673389 2.4847581123232625 2.504592716766579 2.4859388953368344 2.458236671066099 2.585314963603327
          2.6688568456882162 2.68270941813328 2.9512702517780935 3.0021929635411 3.2060946881702352 3.2396247051653777
          3.3106167999492753 3.3291996244362583 3.3280215355253273 3.375926804935863 3.3755291133501557 3.368460185205914
          3.3592727948329864 3.3437714637945586 3.3684630780785505 3.351423182388497 3.360092878773297 3.360340917883708
          3.3739750307799117 3.3730107327748553 3.3921446002032605 3.392148444995545 3.3931057982744113 3.4048760143784693
          3.42359419772495 3.4513399264142017 3.4883433336167347 3.48576157934304 3.561043948820748 3.6197788871002046
          3.6746552172531395 3.716808122212145 3.6702439825923676 3.5200732034770463 3.5025711285236243 3.52143014611936
          3.5518969260680255 3.6092925171040164 3.6147437432629603 3.6191265181697303 3.6189640970633947 3.639109758538697
          3.6436763504597875 3.538487631295549 3.6053879721822346 3.607166402156662 3.722658849766636 3.722929666699477
          3.7903630829769495 3.7907226202880704 3.812834164922 3.8155918595169105 3.82108474715407 3.8371680478565966
          3.8382759674499844 4.028965141205366 4.034822998277937 4.0887291002540245 4.164535680497013 4.273901026240589
          4.2857352094243115 4.311710208330229 4.369747237536534 4.41278426804179 4.422873067477818 4.484241114438341
          4.497879689594366 4.519521536085647 4.552878470177472 4.559789071086211 4.592986737540762 4.60726768994463
          4.706334620525436 4.73645554800166 4.716971638901666 4.7228698919583145 4.74548238239831 4.68185343842476
          4.681889121345104 4.690774168510836 4.699273443944236 4.671126342531539 4.703027103757023 4.752518017838543
          4.796847181096172 4.848902806270888 4.995228307713445 5.045852113840003 5.141895629593694 5.353678895101524
          5.483198340428191 5.637190975537161 5.666893404642232 5.73984253598646 6.048084549843469 6.229195120357661
          6.2292147487239555 6.345782230136293 6.356531936133667 6.391476570880633 6.404093746000816 6.427633633635297
          6.427538351719767 6.310386498491631 6.302914193938828 6.270289469345738 6.1508975649634685 6.034867730086952
          5.945668270319115 5.821297472529516 5.762675829570605 5.6960224895729175 5.657489499550903 5.647370508930546
          5.647804357986923 5.64343395040732 5.597356391594556 5.6654013752537145 5.669347750789685 5.722540993440974
          5.76422762071355 5.784740629476007 5.789605636732597 5.8255815853299895 5.8696022657294495 5.930114305638816
          6.028303653508729 6.050732953660461 6.110071273279066 6.137369703418489 6.168048908579723 6.177429018428149
          6.178621887480176 6.1786177458507385 6.177586480120934 6.150866300187942 6.150860439917051 6.14940123246519
          6.089133773532175 6.088591369235143 6.083581258835829 5.987575695209062 5.987548459677966 5.980766812435068
          5.843942902580201 5.84756590221397 5.845687599882835 5.8092429685984985 5.812346896735507 5.784481114418103
          5.776075787737447 5.760197896639708 5.77017047308616 5.737651652285065 5.7727944638306035 5.77516706924721
          5.768203580125589 5.776542633570024 5.776697156820802 5.774769787684806 5.785803272238282 5.785612407771578
          5.776962046771099 5.767095141339868 5.7728350529001204 5.795664483258486 5.82069465516709 5.824555729066033
          5.851900520212201 5.851082157007724 5.835949407935449 5.8418207728179095 5.884112491681968 5.919305257203278
          5.966331643003448 6.030331309765133 6.0092120898865184 5.982881951675087 6.121861233902071 6.121217261839874
          6.098918443988046 6.114014530866937 6.160283191374039 6.21381997991072 6.272523476148457 6.293932864630626
          6.301380528488425 6.34163021586004 6.3786748207335515 6.462929965056619 6.503559560950556 6.520046848247129
          6.5456205567894035 6.543770361963464 6.452343216891701 6.454471666627592 6.454959249169131 6.446593105379904
          6.43892777957525 6.467344900208684 6.478749572063658 6.497800736820619 6.461713275644557 6.392859985009337
          6.300294809129642 6.266366535213707 6.22313247934028 6.210494716541178 6.214358088321534 6.213256556107163
          6.186971359133744 6.161273221958517 6.107082281748698 6.111649969834788 6.123546190597908 6.128218654321325
          6.1542289607395695 6.175621408763715 6.185992995642432 6.2929427503814415 6.296579881992686 6.301820628286701
          6.393882376331191 6.466575053029813 6.4776369183271365 6.5803853258792095 6.597818184888372 6.686790695818469
          6.711360036504137 6.72955990362532 6.7337150391913 6.757307885789426 6.76387598860628 6.764340637035903
          6.741484273217771 6.7101434722647895 6.704674973973554 6.660814219953146 6.655872496542569 6.545472017838133
          6.545589224544869 6.574773694522089 6.633811431855552 6.658028627644663 6.659053080593262 6.657066893820973
          6.638887473176022 6.631877852690623 6.66793360693871 6.666115496917419 6.6472510005369285 6.64659399962043
          6.602285187638881 6.334850134385151 6.31780320519217 6.129193450879731 6.095474227600771 6.0853722334345886
          6.008809966582723 5.806809305566028 5.59163131143485 5.52040977356623 5.437997619843734 5.35570059303153
          5.115569723167039 0.7931763343987214 0.860984512004184 0.8631273787244153 0.9066718836812202 1.0531297317346597
          1.160040358529687 1.1733687247396136 1.195646815853385 1.2434362452207244 1.243680579747347 1.304519876876391
          1.3028110472104144 1.1621102463126316 1.1692999565437516 1.3418530020906363 1.344334125432818 1.4276021408838089
          1.1569545221022584 1.1938453829403286 1.1940319821515646 1.2404951857493451 1.4167799627711088 1.4315507771670017
          1.47362238918058 1.5332119785234999 1.6378399642758636 1.639185509363149 1.7156362905471365 1.797801180027635
          1.9107784255158724 1.8950025176113974 1.8111900270841363 1.756603200258143 1.7562406009400402 1.778118268098616
          1.8306411699076832 2.0314519174591394 2.0371449755902717 2.0455501396756914 2.0460653763204677 2.046049475454941
          2.023169591157473 2.0337177216520086 2.1514289489308323 2.1601447189195206 2.174124736517461 2.149752330172452
          2.1485978590087895 2.229988348546668 2.239491310102002 2.308345622836798 2.3595770722397442 2.4658194465536463
          2.545574586174843 2.5764403396722657 2.5879767615392755 2.772665579518627 2.9922227370108456 2.9988522731252703
          3.11269565238908 3.113645217175365 3.1536450380242846 3.332765801848631 3.35946608834199 3.3850016065846202
          3.389937939807904 3.299794380595547 3.28111392117449 3.259341478638923 3.2068844443072075 3.0738400435718285
          2.953624088913418 2.8768204486350597 2.8779847946237735 2.8811511845819426 2.832544274829437 2.7804407024038005
          2.7863356166290187 2.799137715499672 2.838135301753226 2.837057773838585 2.898780194950448 2.9000992476311174
          2.9537407233116704 3.0192296657612956 2.981613128562081 2.9811849116661864 2.9982351888540193 3.0469314225361193
          3.1949295554750887 3.249105235190735 3.2469902471835796 3.290359835384457 3.339924746569224 3.341948591099338
          3.353630027882402 3.3536562541237354 3.360186588215771 3.373723936877507 3.3921446002032605 3.392148444995545
          3.3931057982744113 3.4048760143784693 3.42359419772495 3.4513399264142017 3.4883433336167347 3.48576157934304
          3.561043948820748 3.6197788871002046 3.6746552172531395 3.716808122212145 3.6702439825923676 3.5200732034770463
          3.5025711285236243 3.52143014611936 3.5518969260680255 3.6092925171040164 3.6147437432629603 3.6191265181697303
          3.6189640970633947 3.639109758538697 3.6436763504597875 3.538487631295549 3.6053879721822346 3.607166402156662
          3.722658849766636 3.722929666699477 3.7903630829769495 3.7907226202880704 3.812834164922 3.8155918595169105
          3.82108474715407 3.8371680478565966 3.8382759674499844 4.028965141205366 4.034822998277937 4.0887291002540245
          4.164535680497013 4.273901026240589 4.2857352094243115 4.311710208330229 4.369747237536534 4.41278426804179
          4.422873067477818 4.484241114438341 4.497879689594366 4.519521536085647 4.552878470177472 4.559789071086211
          4.592986737540762 4.60726768994463 4.706334620525436 4.73645554800166 4.716971638901666 4.7228698919583145
          4.74548238239831 4.68185343842476 4.681889121345104 4.690774168510836 4.699273443944236 4.671126342531539
          4.703027103757023 4.752518017838543 4.796847181096172 4.848902806270888 4.995228307713445 5.045852113840003
          5.141895629593694 5.353678895101524 5.483198340428191 5.637190975537161 5.666893404642232 5.73984253598646
          6.048084549843469 6.229195120357661 6.2292147487239555 6.345782230136293 6.356531936133667 6.391476570880633
          6.404093746000816 6.427633633635297 6.427538351719767 6.310386498491631 6.302914193938828 6.270289469345738
          6.1508975649634685 6.034867730086952 5.945668270319115 5.821297472529516 5.762675829570605 5.6960224895729175
          5.657489499550903 5.647370508930546 5.647804357986923 5.64343395040732 5.597356391594556 5.6654013752537145
          5.669347750789685 5.722540993440974 5.76422762071355 5.784740629476007 5.789605636732597 5.8255815853299895
          5.8696022657294495 5.930114305638816 6.028303653508729 6.050732953660461 6.110071273279066 6.137369703418489
          6.168048908579723 6.177429018428149 6.178621887480176 6.1786177458507385 6.177586480120934 6.150866300187942
          6.150860439917051 6.14940123246519 6.089133773532175 6.088591369235143 6.083581258835829 5.987575695209062
          5.987548459677966 5.980766812435068 5.843942902580201 5.84756590221397 5.845687599882835 5.8092429685984985
          5.812346896735507 5.784481114418103 5.776075787737447 5.760197896639708 5.77017047308616 5.737651652285065
          5.7727944638306035 5.77516706924721 5.768203580125589 5.776542633570024 5.776697156820802 5.774769787684806
          5.785803272238282 5.785612407771578 5.776962046771099 5.767095141339868 5.7728350529001204 5.795664483258486
          5.82069465516709 5.824555729066033 5.851900520212201 5.851082157007724 5.835949407935449 5.8418207728179095
          5.884112491681968 5.919305257203278 5.966331643003448 6.030331309765133 6.0092120898865184 5.982881951675087
          6.121861233902071 6.121217261839874 6.098918443988046 6.114014530866937 6.160283191374039 6.21381997991072
          6.272523476148457 6.293932864630626 6.301380528488425 6.34163021586004 6.3786748207335515 6.462929965056619
          6.503559560950556 6.520046848247129 6.5456205567894035 6.543770361963464 6.452343216891701 6.454471666627592
          6.454959249169131 6.446593105379904 6.43892777957525 6.467344900208684 6.478749572063658 6.497800736820619
          6.461713275644557 6.392859985009337 6.300294809129642 6.266366535213707 6.22313247934028 6.210494716541178
          6.214358088321534 6.213256556107163 6.186971359133744 6.161273221958517 6.107082281748698 6.111649969834788
          6.123546190597908 6.128218654321325 6.1542289607395695 6.175621408763715 6.185992995642432 6.2929427503814415
          6.296579881992686 6.301820628286701 6.393882376331191 6.466575053029813 6.4776369183271365 6.5803853258792095
          6.597818184888372 6.686790695818469 6.711360036504137 6.72955990362532 6.7337150391913 6.757307885789426
          6.76387598860628 6.764340637035903 6.741484273217771 6.7101434722647895 6.704674973973554 6.660814219953146
          6.655872496542569 6.545472017838133 6.545589224544869 6.574773694522089 6.633811431855552 6.658028627644663
          6.659053080593262 6.657066893820973 6.638887473176022 6.631877852690623 6.66793360693871 6.666115496917419
          6.6472510005369285 6.64659399962043 6.602285187638881 6.334850134385151 6.31780320519217 6.129193450879731